# vtk DataFile Version 5.1
vtk output
ASCII
DATASET POLYDATA
POINTS 9 float
172.917 172.044 72.4893 174.477 184.806 60.8456 227.168 186.35 81.1745 
219.268 172.605 97.8415 223.998 163.415 86.6181 206.102 164.297 35.3451 
209.286 178.959 32.5045 237.871 178.014 53.9248 233.653 159.656 57.5021 

VERTICES 10 9
OFFSETS vtktypeint64
0 1 2 3 4 5 6 7 8 
9 
CONNECTIVITY vtktypeint64
0 1 2 3 4 5 6 7 8 

POINT_DATA 9
FIELD FieldData 1
seed_label 1 9 double
0 1 2 3 4 5 6 7 8 

