# vtk DataFile Version 5.1
vtk output
ASCII
DATASET POLYDATA
POINTS 28141 float
61.437 54.396 79.042 61.596 54.665 78.373 62.221 54.452 79.008 
60.733 54.682 78.337 60.778 54.348 79.2 59.582 54.931 77.247 
58.954 54.82 77.608 58.527 54.872 76.952 58.09 54.988 76.449 
58.474 55.148 75.784 58.979 54.962 76.586 57.547 55.235 75.901 
57.902 55.431 75.462 61.394 53.955 79.806 59.641 54.751 78.081 
57.496 54.923 76.736 60.641 53.948 79.861 58.981 54.692 78.184 
58.411 54.601 78.179 58.074 54.782 77.318 55.808 56.569 75.04 
56.543 56.628 74.734 56.558 56.076 75.109 64.39 55.088 81.293 
64.075 55.01 80.59 64.234 55.683 80.695 63.951 54.449 80.649 
57.124 54.71 77.405 56.719 54.959 76.695 64.006 63.656 81.28 
63.957 62.888 80.689 63.864 63.755 80.615 64.226 62.339 81.323 
64.002 62.059 80.488 64.146 61.575 80.729 64.527 55.924 81.542 
64.573 55.383 81.782 64.248 54.288 81.077 64.687 53.273 81.457 
64.474 52.766 81.27 63.812 52.658 81.09 63.927 53.527 80.903 
60.613 53.349 80.593 60 53.844 80.009 58.897 54.418 78.833 
58.07 54.324 78.81 57.475 54.443 78.271 57.775 54.613 77.795 
56.522 54.704 77.379 56.01 55.128 76.436 56.651 55.436 75.789 
55.844 55.634 75.777 64.147 63.175 81.516 64.403 61.445 81.415 
64.51 60.583 81.388 64.752 60.429 82.044 64.834 59.791 82.168 
64.747 56.559 82.205 64.551 56.59 81.405 64.545 54.126 81.506 
59.865 53.326 80.655 57.43 54.092 79.205 56.456 54.448 78.096 
55.234 57.318 74.848 55.863 57.334 74.647 56.543 59.058 74.144 
55.761 58.984 74.316 55.387 59.384 74.397 63.74 66.056 81.224 
63.834 65.412 80.584 63.767 66.182 80.584 63.83 65.393 81.401 
64.199 63.929 82.084 63.962 64.482 81.505 64.575 59.778 81.385 
64.757 55.678 82.271 65.012 54.301 82.276 64.744 54.837 82.044 
65.3 52.491 81.619 64.707 51.916 81.347 58.193 54.022 79.54 
56.772 54.169 78.89 55.788 54.706 77.374 55.158 55.079 76.679 
55.695 58.048 74.489 63.483 66.752 81.365 63.652 66.571 80.212 
64.1 64.621 82.202 64.457 63.41 82.592 64.81 62.028 82.898 
64.724 61.272 82.293 64.553 62.165 82.209 64.994 60.699 82.907 
64.931 56.413 82.883 65.222 54.98 82.982 65.458 54.072 82.819 
65.278 53.463 82.116 65.584 51.661 81.391 65.061 51.483 81.319 
62.843 51.109 81.881 62.076 51.728 81.75 62.938 51.79 81.504 
61.235 52.002 81.759 60.577 52.663 81.289 61.349 52.634 81.207 
59.797 52.687 81.426 59.175 53.276 80.803 57.532 53.809 79.917 
56.645 53.848 79.826 55.595 54.36 78.323 55.028 54.691 77.396 
54.721 57.33 75.012 63.507 66.914 80.612 62.992 67.433 81.387 
62.966 67.235 82.151 63.561 66.322 82.098 64.967 61.545 83.137 
65.06 55.882 83.115 62.364 50.879 82.2 60.563 51.921 82.027 
58.895 52.839 81.548 55.906 54.11 79.111 53.623 56.559 75.642 
54.177 56.581 75.465 54.062 55.954 75.893 54.208 57.341 75.176 
54.758 56.571 75.332 54.151 58.429 74.938 54.854 58.892 74.603 
55.275 58.47 74.546 54.806 61.556 74.517 55.543 61.435 74.274 
55.106 60.705 74.426 55.073 62.326 74.43 56.015 62.142 74.122 
62.986 67.541 80.615 64.255 64.732 82.887 63.942 65.324 82.323 
65.114 62.313 83.741 64.741 62.865 83.099 65.347 56.615 83.839 
64.894 56.919 82.661 65.41 55.711 83.681 66.231 51.019 81.216 
66.26 51.727 81.599 63.112 50.301 82.243 63.296 51.337 81.612 
61.498 51.13 82.392 57.282 53.598 80.468 58.214 53.499 80.602 
55.857 53.894 79.844 54.953 54.215 79.011 54.848 54.449 78.086 
54.337 54.707 77.471 53.287 55.959 76.082 54.031 59.188 74.894 
54.334 61.273 74.712 54.254 60.592 74.756 55.858 62.989 74.185 
62.4 67.77 82.046 62.564 67.489 82.529 63.695 65.857 81.749 
64.821 63.627 83.689 64.516 63.778 82.98 65.05 63.138 83.939 
65.452 61.837 84.227 65.041 57.279 83.116 65.179 57.742 83.495 
66.4 53.168 83.779 66.379 52.732 83.119 65.926 53.374 82.977 
66.81 52.021 82.965 66.154 52.508 82.319 65.416 51.049 81.29 
63.78 50.17 81.981 63.654 50.883 81.72 62.258 50.216 82.755 
58.18 52.706 82.212 57.769 52.99 81.789 56.709 53.566 80.691 
54.157 54.461 78.163 53.58 54.933 77.222 53.003 55.307 76.967 
52.653 56.546 76.02 53.384 59.042 75.213 53.395 59.822 75.176 
54.179 59.801 74.802 54.09 62.112 74.835 55.03 63.263 74.448 
62.292 67.949 81.4 64.201 65.518 83.718 64.049 65.447 83.013 
63.707 66.165 83.131 65.349 57.542 84.025 65.317 58.204 83.874 
65.507 58.604 84.272 66.68 52.458 83.644 66.028 50.431 81.128 
63.905 49.488 82.389 64.572 50.987 81.452 58.888 51.962 82.92 
58.939 52.407 82.23 59.637 52.046 82.309 57.358 53.274 81.367 
55.144 53.992 79.94 55.834 53.704 80.613 53.405 55.4 76.576 
54.238 55.231 76.591 52.761 55.717 76.514 52.31 56.255 76.397 
52.693 57.46 75.686 53.743 57.714 75.266 53.004 59.417 75.393 
53.509 61.473 75.118 54.582 62.219 74.632 55.788 63.824 74.229 
62.074 68.091 79.134 61.353 68.51 78.919 61.019 68.665 79.397 
61.522 68.192 82.295 62.162 67.742 82.907 62.487 67.508 83.759 
63.248 66.923 83.814 63.031 67.034 82.986 63.789 66.338 83.958 
65.166 63.908 84.499 64.663 64.487 83.875 65.493 63.055 84.617 
65.722 57.419 84.688 65.684 58.217 84.691 67.029 51.707 83.858 
65.346 50.252 81.347 64.735 49.195 82.077 64.477 50.042 81.749 
59.917 50.817 83.606 59.644 51.407 83.127 60.059 51.566 82.627 
56.457 53.438 81.236 55.064 53.849 80.649 54.027 54.364 78.879 
53.368 54.653 78.196 53.312 57.185 75.518 53.278 58.088 75.356 
53.236 62.323 75.264 54.226 63.589 74.77 54.357 62.857 74.713 
54.987 64.071 74.466 60.728 68.927 78.303 60.48 68.978 79.153 
61.282 68.167 83.155 62.872 67.333 84.383 63.591 66.802 84.684 
64.152 66.048 84.486 64.96 64.589 84.599 66.378 57.298 85.351 
66.234 56.623 85.08 66.024 55.983 84.572 65.859 56.762 84.726 
66.743 55.632 85.152 66.342 55.026 84.573 67.018 54.991 85.281 
66.631 54.392 84.721 66.18 54.619 84.183 68.062 50.253 82.321 
67.894 50.608 81.528 67.723 50.915 82.146 68.335 49.966 81.15 
67.825 50.132 80.941 67.458 50.525 81.11 66.192 49.651 81.135 
66.925 50.125 80.934 65.406 49.37 81.588 59.102 51.066 83.841 
57.557 52.558 82.91 57.273 52.924 82.329 55.893 53.459 81.468 
53.227 54.528 79.113 52.977 54.719 78.615 52.319 58.193 75.747 
53.485 63.056 75.135 55.741 64.623 74.27 61.344 68.476 80.473 
61.545 68.403 79.639 60.685 68.82 79.875 60.733 68.687 81.247 
61.448 68.363 81.368 61.83 67.879 83.408 65.3 64.729 85.268 
64.679 65.278 84.683 67.444 54.675 85.761 68.357 49.389 80.944 
65.457 48.549 82.156 64.617 48.636 82.763 60.51 50.1 83.905 
60.194 49.802 84.332 59.689 50.343 84.19 58.348 51.677 83.646 
58.106 52.228 83.097 56.685 52.626 83.133 56.448 53.165 82.067 
54.352 54.021 80.744 55.032 53.646 81.426 52.215 56.962 76.065 
51.756 59.001 75.986 52.576 58.979 75.604 52.73 62.076 75.529 
52.491 62.916 75.65 52.988 62.986 75.392 53.422 63.973 75.161 
54.191 64.395 74.784 54.964 64.85 74.488 59.939 69.2 79.684 
59.815 69.314 79.03 60.201 69.025 80.195 60.471 68.856 80.729 
60.724 68.373 83.683 61.061 68.344 82.659 61.498 68.016 83.909 
61.342 68.115 84.888 62.175 67.73 84.577 62.902 67.449 85.147 
64.946 65.411 85.364 66.929 56.578 85.554 67.411 55.777 85.794 
67.623 53.376 86.183 67.278 52.748 85.55 67.202 53.44 85.404 
67.036 51.766 84.59 67.201 51.399 85.009 68.404 49.387 82.172 
68.558 49.343 81.46 67.802 49.353 80.755 63.775 48.369 83.883 
63.095 48.685 83.891 63.789 48.76 83.257 63.043 48.271 84.562 
62.308 48.556 84.513 57.422 51.945 83.824 55.641 53.309 82.035 
54.607 53.591 81.843 52.756 54.671 79.638 52.585 54.786 79.034 
51.776 57.377 76.11 51.87 56.591 76.33 51.164 56.753 76.707 
51.57 58.312 76.073 51.897 62.287 75.951 52.754 63.645 75.511 
55.624 65.321 74.343 59.867 69.036 81.482 60.508 68.663 82.118 
61.358 68.201 85.495 62.07 67.939 85.523 63.731 67.072 85.697 
67.144 57.521 85.845 67.603 52.622 86.229 67.264 51.019 83.819 
67.159 50.988 84.604 67.384 50.317 83.951 68.295 48.735 80.916 
67.84 48.49 80.895 67.09 49.089 80.899 67.276 48.287 81.084 
66.394 48.605 81.441 60.432 48.743 85.065 59.879 49.504 84.76 
60.705 49.262 84.538 55.069 53.295 82.325 53.374 54.448 79.737 
51.978 54.984 79.885 51.788 55.17 78.999 52.394 54.968 78.327 
51.093 56.042 77.506 51.805 55.553 77.39 51.628 55.418 78.1 
50.716 56.806 77.071 50.952 58.983 76.354 51.634 63.137 76.079 
52.621 64.381 75.573 53.391 64.785 75.174 54.204 65.207 74.801 
54.986 65.631 74.545 55.774 66.237 74.455 59.114 69.581 79.882 
58.888 69.619 80.702 59.718 69.229 80.516 59.605 69.021 82.353 
60.133 68.773 82.574 60.241 68.647 83.458 60.469 68.523 84.518 
60.984 68.27 84.213 60.69 68.617 85.55 67.6 61.253 86.004 
66.934 60.582 85.864 66.965 61.37 85.864 67.808 58.23 86.03 
66.687 57.742 85.579 67.726 55.094 86.145 67.626 56.199 86.048 
68.012 54.009 86.817 67.677 54.16 86.163 67.197 50.224 84.649 
67.56 49.386 83.793 68.031 49.389 82.966 68.459 48.585 82.055 
68.545 48.614 81.358 63.128 47.763 85.214 63.817 48.004 84.628 
56.741 51.644 84.517 56.518 52.098 84.032 56.048 53.037 82.482 
52.645 54.665 80.326 53.415 54.346 80.571 51.924 54.865 80.738 
50.796 55.879 78.33 50.844 58.099 76.43 51.415 61.808 76.184 
51.122 62.886 76.326 52.189 63.392 75.799 55.014 66.214 74.627 
59.108 69.436 81.245 59.361 69.229 81.801 58.956 69.27 82.998 
59.758 68.882 83.029 59.728 68.926 84.588 59.881 68.797 83.895 
61.523 68.497 86.203 63.101 67.781 86.184 63.934 67.467 86.483 
64.141 66.954 86.06 68.107 61.072 85.884 68.266 57.903 86.267 
68.308 56.632 87.02 67.977 55.958 86.429 67.841 56.622 86.303 
67.807 52.996 86.59 68.217 53.829 87.317 67.989 52.6 87.009 
67.634 51.944 86.356 67.772 50.088 83.195 68.185 48.703 82.72 
68.299 47.954 81.323 67.816 47.758 81.261 67.143 47.744 81.583 
67.186 47.368 82.141 66.372 47.8 82.29 66.218 47.62 82.961 
66.224 47.696 83.531 65.523 47.957 83.068 65.567 47.839 83.93 
63.928 47.499 85.444 61.526 47.632 85.576 62.217 47.771 85.361 
62.609 47.396 85.634 55.96 51.57 84.771 54.73 53.004 83.011 
51.205 55.368 79.697 49.602 57.562 77.552 50.323 57.554 76.884 
50.267 56.858 77.435 51.019 57.39 76.453 50.891 63.722 76.44 
51.389 63.795 76.195 51.824 64.78 75.967 51.887 63.869 75.949 
52.587 65.186 75.575 53.401 65.602 75.176 53.844 65.855 75.014 
54.288 66.108 74.851 58.371 69.897 80.493 58.24 70.005 79.811 
[...]
POINT_DATA 28141
SCALARS scalars float
LOOKUP_TABLE default
1.41471 0.98768 1.36866 0.92809 1.4445 0.45277 0.37377 0.32366 0.26814 
0.22097 0.31644 0.1993 0.17312 1.93653 0.62114 0.26972 1.80652 0.47985 
0.45457 0.3336 0.09977 0.1053 0.12708 3.08671 2.77253 2.39516 3.09212 
0.31125 0.25121 0.99851 0.56652 0.58142 1.02921 0.47127 0.55523 2.78336 
3.2131 3.42255 4.19355 4.33077 4.15382 3.62478 2.16945 1.82278 0.74798 
0.58638 0.41372 0.37851 0.30064 0.18474 0.16691 0.14965 1.35151 0.92539 
0.85813 1.32894 1.41019 2.81406 2.30307 3.73492 1.99973 0.44148 0.34488 
0.0939 0.08476 0.06885 0.06699 0.06777 0.65725 0.56155 0.57464 0.785 
1.59707 0.73038 0.96511 3.31421 3.99493 3.64825 4.5655 4.65217 0.42862 
0.40356 0.31012 0.24941 0.07172 0.71819 0.55027 1.43276 2.76531 2.94406 
1.81555 2.13876 2.01598 3.3106 3.85409 4.30549 4.33438 4.77495 4.78579 
4.8544 4.68467 4.72801 3.61214 2.4421 2.46016 1.94375 1.13664 0.4065 
0.39521 0.34849 0.31802 0.10778 0.60669 0.67486 0.74889 0.88837 2.64975 
3.5995 4.89412 5.00607 0.72902 0.38054 0.17346 0.12245 0.18994 0.11703 
0.12922 0.0904 0.07443 0.0737 0.06868 0.06676 0.0667 0.07297 0.06834 
0.6076 2.84295 2.00695 3.24379 3.24018 3.8252 2.78878 3.87215 4.91218 
4.81107 4.81107 4.80384 5.00968 0.3986 0.44329 0.39341 0.37038 0.33585 
0.32321 0.2643 0.08939 0.075 0.07534 0.07613 0.66854 0.66493 0.69788 
3.22032 2.9892 3.20407 2.62808 2.63891 2.12612 5.00246 4.87968 4.47161 
5.22275 4.61606 4.82551 4.80384 4.81468 4.79662 0.38709 0.38889 0.39183 
0.33405 0.32592 0.32096 0.2643 0.12753 0.11602 0.07985 0.08357 0.0869 
0.64597 2.55224 2.72739 2.27418 2.25612 1.45172 0.92809 5.2408 4.86523 
4.77495 4.7894 3.44241 1.23595 5.22997 0.3916 0.40401 0.40153 0.29139 
0.27649 0.30222 0.29613 0.22165 0.12697 0.14987 0.10203 0.07697 0.09345 
0.48662 0.47082 0.5602 0.65048 0.66628 1.04456 1.46256 0.93622 2.01417 
2.67683 2.8917 2.92781 2.3771 0.64552 5.23719 4.77495 4.55106 4.75329 
5.24802 5.25164 5.2083 0.38528 0.42478 0.33811 0.35865 0.19276 0.16861 
0.11568 0.09751 0.08696 0.10078 0.40289 0.58232 0.71413 1.20435 2.04306 
2.36988 2.67503 3.56158 5.17219 5.83304 4.44272 5.79693 5.8836 5.71748 
5.85471 5.40331 4.99524 5.03496 5.07107 4.99163 4.98441 5.00246 4.76773 
4.92301 4.59078 5.2733 0.30358 0.32615 0.39589 0.41756 0.39995 0.22368 
0.10913 0.11038 0.63649 0.5602 0.64506 0.74573 0.65906 0.8491 2.58836 
2.61002 5.03135 4.93746 4.05632 3.73853 5.21552 4.76412 5.23358 2.38071 
0.71729 0.34217 0.35233 0.45322 0.44599 0.27559 0.25821 0.18768 0.14457 
0.15574 0.13069 0.11873 0.10789 0.11331 0.66809 0.58187 0.71323 0.73986 
0.89334 0.71187 0.84233 0.80983 0.90101 1.13935 2.57752 5.1758 4.65217 
0.26476 3.6952 3.6952 5.34914 5.28775 4.90135 4.92663 4.92301 3.06504 
3.26366 3.43519 3.07948 3.25463 0.34646 0.39679 0.49655 0.42862 0.41011 
0.29365 0.30809 0.34646 0.2862 0.20472 0.14344 0.12155 0.88611 0.9949 
0.92719 1.17817 2.63169 2.73822 1.86972 5.12885 5.14691 4.96635 4.86885 
4.83635 4.82912 4.77495 4.598 2.83211 3.78187 2.9549 0.4487 0.43336 
0.42636 0.39724 0.37964 0.3591 0.35143 0.37377 0.37896 0.35413 0.2212 
0.15292 0.12832 0.12065 0.12618 0.13893 0.70194 0.79628 0.77191 0.99761 
1.03914 1.05539 0.95337 0.81253 1.06171 1.83541 1.55193 1.85528 1.79208 
2.0864 4.23688 3.40991 0.55704 1.24408 4.88329 4.64856 4.79662 4.81829 
4.85079 2.73642 2.92059 0.3758 0.38122 0.36249 0.44103 0.43832 0.53537 
0.36339 0.36316 0.2643 0.2783 0.17346 0.1369 0.85948 0.9317 1.00754 
1.05358 1.059 1.04907 1.81104 2.65155 2.64975 2.59377 1.80472 1.76409 
1.64944 2.62086 2.666 0.80983 1.01115 1.36595 2.92239 4.9194 4.72801 
4.7894 4.7569 4.76412 4.55467 4.20438 3.77826 3.6952 3.567 3.38463 
2.72558 2.32113 2.3771 2.40779 0.31825 0.48346 0.39611 0.5268 0.42568 
0.4144 0.34736 0.28507 0.23857 0.19817 0.19445 0.16014 0.1387 0.13453 
0.13509 0.76559 0.69382 0.94254 2.30307 2.56127 2.56488 2.58294 2.15681 
2.06653 2.22904 1.90222 1.51763 0.7683 1.3488 2.19834 4.45356 4.48606 
4.45717 4.7569 4.65578 4.07799 3.79992 3.5688 3.1824 2.31932 2.50169 
2.82128 2.7942 1.9907 0.34104 0.46089 0.6401 0.73218 0.59586 0.86038 
0.5593 0.46992 0.37896 0.35075 0.38302 0.48256 0.33563 0.24918 0.84774 
0.99851 1.02289 1.04817 1.0915 1.16824 1.40116 2.6335 2.64614 2.63169 
2.05028 1.51131 1.51131 1.43999 4.26216 4.12854 4.72079 4.52939 4.03104 
2.90976 2.95851 2.75447 2.52155 2.41321 2.50349 2.65516 1.82819 1.3154 
0.19682 0.50107 0.55839 0.54711 0.93622 0.42929 0.48301 0.61843 0.46811 
0.38867 0.37828 0.25189 0.20585 0.17244 0.35368 0.21668 0.27198 0.26024 
0.77417 0.97504 0.994 1.90042 1.89319 2.79058 2.43307 2.57933 2.49627 
2.52877 2.52877 2.56669 2.54683 2.60822 2.38974 2.42224 2.44391 2.12431 
2.24348 1.65214 1.61964 1.6377 1.54381 1.61332 1.41471 1.26845 1.33436 
1.39123 1.43276 2.09362 2.59558 3.16976 3.79992 4.22244 4.30911 4.67745 
4.54745 2.39516 2.1839 2.2489 0.52228 0.37738 0.57916 0.95157 0.3266 
0.35549 0.34872 0.60805 0.48482 0.48752 0.45096 0.32321 0.15078 0.14965 
0.28394 0.23135 0.20077 0.33066 0.33044 0.45322 0.83194 0.93712 0.96059 
1.42283 1.23234 3.50922 3.51644 2.33918 2.34099 2.34279 2.39696 2.50349 
2.36807 2.25071 2.27598 2.29765 2.20376 2.27418 1.97445 1.57992 1.60159 
1.41471 2.3789 2.49446 3.80715 4.05632 4.00215 2.09362 2.53238 2.07014 
2.11709 2.43127 0.18881 0.27717 0.17752 1.44901 0.84458 0.32886 0.43877 
0.77732 0.61933 0.54621 0.25641 0.2212 0.18678 0.16861 0.17154 0.32795 
0.36587 0.92177 0.88611 2.63169 1.44269 2.64975 2.96392 2.00514 2.3771 
2.35724 2.3121 2.21459 2.40779 2.34279 2.33376 2.48905 2.46196 2.3139 
2.32474 2.2814 2.25251 2.23265 2.14959 2.04487 1.6711 1.67923 1.59437 
1.60971 1.57811 1.80291 1.56909 1.82007 1.25942 1.477 1.29283 1.35061 
2.6678 2.92059 4.20438 2.19473 1.85528 2.01056 1.8625 1.91306 0.212128 
0.212043 0.5128 1.32081 0.4083 1.00935 0.81208 1.03914 0.69246 0.72767 
0.51687 0.17301 0.3828 0.34127 0.71774 0.70645 0.66899 0.83465 0.99942 
2.70753 3.07045 2.34279 2.30307 2.13695 2.40238 2.4746 2.20195 2.23084 
2.17487 1.9257 1.73249 1.71263 1.61332 1.60249 1.51763 3.62478 3.29255 
4.24049 2.50241 1.89498 2.0864 0.437647 0.57148 0.60353 0.6893 1.40839 
1.35873 1.19894 0.82563 0.28936 0.29455 0.2783 0.25212 0.21442 0.46721 
0.68975 0.94434 0.76017 0.94705 3.29977 3.50019 3.52908 1.36415 2.025 
2.14417 2.41502 2.10265 2.05389 2.09362 1.88778 1.80562 1.88597 1.74152 
1.67472 1.63319 1.62326 1.78034 1.83722 1.93292 2.26876 1.9275 1.78395 
2.31571 2.39877 2.45655 2.55947 2.5378 2.55912 2.60269 2.45243 2.62101 
0.596333 0.367797 0.75927 1.09782 0.63874 1.43637 1.15831 1.16734 0.47669 
0.71232 0.69427 1.0924 0.78771 1.27477 1.11317 2.95128 3.16435 2.07556 
1.93472 1.9275 2.36085 2.40599 2.46738 2.41863 2.08278 2.09362 2.00875 
1.82639 1.65305 1.62687 1.62145 1.84986 1.84444 1.81555 1.84264 1.84264 
1.37498 5.06024 4.03465 4.63412 2.00153 2.65697 2.74003 2.8285 2.23084 
1.46888 1.55735 1.70992 0.594291 0.75159 1.49235 0.99851 0.29545 0.27965 
1.26845 1.07615 0.94976 1.11227 1.24408 1.2188 1.13484 1.64763 2.18209 
1.84986 0.30448 0.33833 0.35549 0.66086 0.69427 1.48783 1.9582 0.44329 
0.5277 0.3126 1.59707 1.58895 2.05389 1.99431 2.22543 2.10626 2.08098 
2.22723 1.87875 2.12431 1.97264 1.89139 1.67833 1.64853 1.82639 1.84625 
1.81104 1.6377 1.28922 1.24859 3.71686 3.78909 3.22213 3.01268 4.4355 
5.07469 5.14691 5.22997 2.81406 1.43637 1.28561 0.99761 1.13393 0.31915 
0.18362 0.76604 0.59676 0.57058 0.86761 0.93441 0.80396 1.52395 0.45683 
0.42546 0.59225 0.48978 0.49384 2.20195 1.95097 1.94556 2.1514 2.04487 
1.83541 1.66208 1.65937 1.79479 1.58714 1.39214 5.31664 2.93684 2.666 
3.24921 2.90614 3.07587 2.40599 2.09001 2.58113 1.47158 1.7677 1.35602 
0.46766 0.51055 0.45863 0.61798 0.7367 1.16192 1.44269 2.19112 3.11921 
3.17337 1.84805 0.81073 0.89198 0.76107 0.40447 0.30019 0.34014 0.49475 
1.12581 1.1863 1.72076 2.00153 2.88809 2.12792 0.32208 0.52634 0.51867 
0.42252 0.46992 1.09963 1.27658 2.14598 2.26876 1.95459 2.10987 2.1839 
1.86069 1.80833 1.79389 1.88958 1.96 1.7984 1.68916 1.67833 1.80923 
1.80111 1.75236 5.76804 5.75721 5.23358 5.57665 2.99642 3.13726 3.20949 
2.35363 1.29644 1.30276 1.77673 0.61347 0.62159 0.32141 0.50197 1.00574 
0.73986 0.80531 0.50061 1.0906 0.88927 1.39123 2.04848 1.91847 1.7027 
1.58985 0.42117 0.51009 0.66222 2.18029 2.00514 1.90222 2.10806 2.09001 
2.08098 1.98348 1.88417 2.01598 1.9275 1.86611 1.83722 1.86972 1.78215 
1.73159 1.77132 3.06684 2.68405 1.33797 1.2206 1.30276 1.24949 2.61725 
2.70392 2.91187 2.71138 0.54756 0.50874 0.61482 1.32081 1.74243 2.94587 
3.96243 2.9874 1.63319 2.20195 0.46992 0.69562 0.80757 1.11317 1.37047 
0.52138 1.19803 1.10956 1.80021 2.03223 2.14959 2.33015 2.05751 2.10265 
1.27838 0.53131 0.36068 0.30538 0.97865 1.20435 0.95608 0.98407 1.58353 
1.8625 2.17668 1.70722 1.68013 1.72617 1.92389 1.76409 1.38853 1.54561 
1.7027 1.68013 1.74152 1.69367 1.8318 1.78125 1.72437 1.62416 1.84083 
1.18449 1.3172 1.08157 4.19716 4.87246 5.8186 3.26727 3.14268 3.36296 
3.37741 1.26123 2.01778 3.14378 3.13227 3.15171 0.50016 1.08067 0.72496 
0.8482 0.53221 1.37047 1.37408 1.51311 1.52304 1.37769 1.01115 1.28741 
2.31571 2.05931 2.03945 1.89681 1.65756 1.75597 1.88236 2.01778 1.20616 
0.52996 0.32141 0.66899 0.93261 0.92809 0.87934 0.90462 0.99671 1.94917 
1.90944 2.06834 1.11949 1.80743 1.07435 1.13032 5.11802 3.17699 3.27629 
3.31602 3.36658 3.35574 2.07737 2.10084 2.1532 1.67562 0.701401 0.697353 
0.61843 0.48662 1.43005 2.01417 2.92962 4.25133 4.04549 2.10987 0.62475 
0.41914 0.33788 1.37769 1.37679 1.24046 1.39575 2.00153 1.92208 1.60159 
1.52665 0.72902 0.79403 0.70239 0.83917 0.76333 0.96059 1.48874 1.50047 
2.11167 2.07376 2.08098 2.07556 2.07917 3.44602 3.69159 3.31963 2.01237 
1.91125 1.82639 0.724671 0.628663 0.628113 0.609366 0.56878 0.49881 0.45863 
0.4961 0.46766 0.71819 1.30276 1.96 1.49957 1.01115 0.79448 0.93261 
1.49145 1.6377 1.47971 2.09903 1.41561 1.49145 1.30005 0.59902 0.6726 
0.44193 0.61301 0.64416 0.70871 0.8816 0.98407 0.96962 2.09001 2.07556 
2.01056 0.98678 1.13935 0.96059 3.39005 3.03795 2.52877 3.37922 2.861 
3.00365 3.30157 3.28352 2.14598 2.19834 0.50016 0.50468 1.08247 2.43488 
3.32685 4.08521 3.53089 1.43908 0.53989 0.60218 0.38009 0.81344 1.04275 
1.50679 1.22241 1.82458 1.31811 1.47249 1.69277 1.89681 1.85347 1.4445 
0.6717 0.60579 0.77823 0.511 0.36768 0.45863 0.53086 0.94796 1.00844 
2.0864 1.39394 1.38943 1.05449 0.9299 0.7042 3.1806 3.31602 1.9257 
0.650592 0.46676 0.42026 0.46721 0.75837 1.4454 1.90042 0.70916 0.39544 
1.65937 1.35061 2.03764 1.9257 2.06112 1.87694 1.58443 1.7343 1.83 
1.4761 1.42012 1.46256 1.43728 1.56006 1.62957 1.78757 2.22362 2.13334 
1.44811 1.46888 1.3804 0.74257 0.42072 0.4627 1.04907 2.00695 1.55554 
1.93653 2.11348 0.748911 0.74979 1.09331 1.66659 1.93292 2.33918 2.88087 
2.51794 0.50874 1.49415 2.04306 1.52124 1.57089 1.76951 1.69006 1.38221 
2.22723 2.42043 1.48242 1.44179 0.87528 0.72361 0.6568 0.50377 0.47218 
0.56562 1.07796 0.92539 0.72767 0.71232 1.02379 1.10595 1.06713 1.0906 
1.40568 1.05268 3.38824 3.09393 3.38824 0.776678 0.55343 0.45277 0.42816 
0.51506 0.79177 1.36054 1.27929 1.3795 1.23053 1.10414 1.35873 1.82819 
1.85889 2.0557 1.65756 1.42283 2.29585 1.47519 1.43818 1.45082 1.24046 
0.83736 0.57103 0.46586 0.54214 0.5909 1.03192 1.24498 2.09001 0.66583 
1.02469 3.38824 3.38824 2.65155 2.85739 2.85559 3.0524 3.01087 3.07442 
3.06965 3.01629 2.78254 3.01551 2.90253 0.826118 1.10053 1.45714 1.7677 
1.94014 1.82639 0.57916 1.3163 1.31811 1.25942 1.36144 1.52034 1.68916 
2.05931 1.96903 1.71444 1.61423 1.71354 2.24348 2.46738 2.28501 1.81555 
1.59346 1.9907 1.50138 1.477 1.20345 0.7868 0.50197 0.56562 2.52516 
2.37349 2.46196 2.53238 2.31029 2.36807 2.22904 2.16945 1.03824 0.90101 
0.81524 1.01476 0.98316 1.0256 2.22001 3.16976 1.7036 2.78336 2.97656 
0.966516 0.76017 0.57916 0.48752 0.47127 0.60308 1.30276 1.607 1.35783 
1.33075 1.98709 1.97445 1.57541 1.81646 1.69097 1.96542 1.84986 1.92028 
1.93833 1.75777 1.82819 1.85347 1.75777 1.70451 1.57811 1.62867 1.53568 
0.98316 0.82698 0.71503 0.42365 0.43245 0.41823 0.54169 2.46919 1.45082 
1.55193 1.72437 2.71655 1.07352 1.07796 0.77868 0.80441 1.17275 1.47068 
1.54742 1.47068 1.48603 1.48513 1.39846 1.33345 1.33255 1.45894 1.91847 
2.05389 1.96542 2.06292 1.89319 1.97986 1.82097 1.58082 1.51311 1.50589 
1.79659 2.10265 1.71173 2.2796 1.73069 1.45714 1.28199 0.79628 0.56787 
0.63017 0.63378 0.54801 0.43652 2.53238 2.54141 2.51613 2.51071 1.2829 
1.51311 3.38824 3.38824 3.38824 2.75447 2.85378 2.97476 2.88989 1.15315 
0.60444 0.54621 0.82743 0.95608 0.95066 1.44269 2.15681 1.75416 2.12251 
1.69909 2.01237 2.29224 2.13876 2.13695 1.93472 1.98528 1.71895 1.52665 
1.51763 1.58173 1.56096 2.05209 2.52155 2.53419 1.77402 1.6368 1.01837 
0.86219 0.59947 0.71142 1.12491 1.17275 3.38824 3.38824 2.70753 2.83753 
2.66282 2.51159 1.21444 1.04185 0.77778 0.49384 0.63288 0.7543 0.87122 
1.53929 1.46346 1.31901 1.42464 1.30998 1.42915 1.80201 1.46075 1.31088 
1.40297 1.68194 2.50349 2.40418 2.46377 2.04667 2.11529 2.11348 1.92389 
1.77673 1.5411 1.81826 2.00695 2.53238 1.31811 1.33707 0.82969 0.74528 
0.57555 0.50558 0.51777 0.39815 0.41778 0.44419 0.40063 2.29946 2.41863 
2.11709 2.52516 2.43488 1.07435 2.91156 3.01087 3.35032 2.7003 2.7635 
2.37041 1.3224 0.53944 0.53898 0.6085 1.03643 1.01476 1.43367 1.58714 
1.31088 1.60881 1.34609 2.43307 2.57933 2.15862 2.09362 2.42766 2.6028 
2.1207 2.42946 1.98709 2.04667 1.57179 1.5727 1.64673 1.63589 2.48544 
2.54502 2.46919 2.51433 1.84805 1.20435 1.21067 1.1231 0.66086 0.50197 
0.45231 0.4171 0.42162 2.43307 2.5396 2.40779 2.51974 2.28321 0.72045 
0.66267 0.93893 1.01476 1.07435 1.5104 2.22362 2.25071 2.7635 2.46738 
1.38891 1.42345 1.35512 0.98136 0.86354 0.75701 0.65048 0.84052 0.94886 
1.24498 1.21699 1.55103 1.62777 1.96722 1.46617 2.48002 1.33436 1.34248 
1.66208 2.67141 2.65155 2.2489 2.18932 2.07737 1.89861 1.65846 1.60791 
1.6377 1.26574 1.63589 0.86354 0.43471 2.25432 2.51071 2.10265 2.52516 
0.84639 0.66538 0.66312 1.37769 1.4138 1.45804 3.38824 3.38824 3.38824 
2.66961 2.53238 1.42646 0.72361 0.62475 0.85451 1.07796 1.412 1.55916 
1.4454 1.35151 1.5104 1.83722 3.01809 3.59408 3.60492 2.17306 2.51974 
2.66961 2.6678 2.38252 2.01959 1.94195 2.33376 2.19293 2.46557 1.31179 
0.75521 0.74031 0.3266 0.31125 0.20066 0.44103 2.46557 1.66208 2.68405 
3.36658 2.71655 1.45533 1.18991 0.60218 0.78229 1.10324 1.66478 1.69819 
1.64853 1.70812 2.27057 2.78336 3.73131 1.32443 1.27387 1.62235 2.54141 
2.56488 2.06473 1.60068 1.58263 1.59707 1.58534 1.62957 2.59197 1.40478 
0.66131 0.21284 0.18644 1.92389 0.99671 1.00664 1.01205 1.45172 2.26876 
2.49446 2.65877 2.46016 2.64975 2.22576 2.14607 2.29585 1.3886 1.35061 
1.43797 1.13574 0.9308 0.78003 0.87212 1.26304 1.48964 4.28383 4.86885 
2.14598 2.58474 2.6678 2.59919 2.45474 2.05028 2.17668 1.59075 1.62055 
1.6711 1.66298 1.73701 1.7993 1.78847 1.93472 2.24709 2.38613 2.65155 
2.55585 1.6711 1.89139 0.95247 1.43728 0.83646 0.77958 0.37896 0.49159 
0.56201 1.88778 2.17487 0.69427 0.72361 0.70781 0.88476 0.90733 1.73791 
2.49266 2.81045 2.70392 2.6353 0.98226 0.82743 0.72767 0.67034 0.96421 
0.94254 1.23053 1.41471 1.67381 1.55735 1.72166 1.73701 1.87514 2.01237 
3.27268 3.90465 1.58263 1.52214 1.62055 2.66058 2.60822 2.65336 2.39335 
2.03584 1.91125 1.9275 1.85889 1.85708 1.63319 1.65937 2.39516 2.65336 
2.47099 2.7635 2.09362 0.96691 0.54034 0.26543 0.11252 0.19118 0.11478 
1.45714 1.78034 1.23415 2.35182 2.39154 2.70392 2.68225 2.65336 0.74618 
0.78545 0.86264 0.90191 0.9624 1.50589 1.55554 3.10476 2.36446 4.03104 
4.67023 2.12431 2.34821 2.49446 1.95639 1.83361 2.56127 2.81045 2.54683 
2.35724 2.26335 2.46919 1.32262 1.7993 0.80305 0.33156 0.20495 0.08741 
0.079 1.15289 1.22241 2.97476 3.38824 3.38824 3.38824 2.61905 2.68405 
0.74031 0.77732 0.82021 0.95879 1.34519 1.71444 1.73972 1.84264 2.27779 
3.63742 2.10806 2.02862 1.90403 2.60461 2.5703 1.95278 2.80864 2.58655 
2.65697 2.49085 1.18539 1.59978 0.43922 0.3336 0.1018 2.16765 2.80684 
3.06323 3.38824 3.38824 3.38824 3.38824 0.83059 0.76288 0.85677 1.00303 
1.54471 1.63228 2.87184 3.54714 4.00937 2.43849 2.09362 2.40238 2.36085 
2.40779 2.35724 3.04156 2.78878 2.78156 2.3771 2.04306 1.23324 0.84549 
0.76559 0.05491 0.66267 0.66267 0.66267 1.53839 2.38974 2.82309 3.04156 
3.09393 2.32811 2.289 2.3789 0.7543 0.80486 0.89198 0.98136 1.06081 
1.06983 0.9931 1.52124 1.7036 1.73701 1.84083 2.20737 3.24379 2.49266 
2.06473 2.35904 2.19473 2.45113 2.40599 2.36265 2.4746 2.46377 2.83934 
2.68586 2.96212 2.00514 1.52756 0.9624 0.07432 1.32713 2.38432 2.51433 
2.81045 3.33227 3.35213 3.35213 3.38644 3.38824 2.34513 0.894896 0.858492 
0.785 0.67125 0.75837 0.71187 0.72857 0.84097 0.99761 1.66117 2.5071 
3.14087 3.37922 2.14779 2.14056 2.25793 2.26876 2.33376 2.31571 2.28682 
2.27057 2.32113 2.8917 1.47249 0.10473 0.15371 0.05186 0.76107 0.74889 
0.68208 0.76965 1.03643 3.38644 3.38644 3.38824 3.38102 3.38463 2.72017 
2.72378 2.74544 0.846554 0.63649 0.67215 0.85858 0.87257 0.86129 1.01115 
1.60881 1.78757 1.88236 2.77795 2.99642 2.18029 2.26154 2.36627 2.1839 
2.3789 2.43668 2.18029 2.13334 3.1174 2.13695 0.06518 2.39154 2.49085 
2.85559 3.32685 3.26727 3.38463 2.73461 2.71114 0.765227 0.69878 0.58864 
0.59902 0.72857 0.82878 0.77778 0.86445 1.08428 1.35151 1.71083 2.92601 
2.12612 2.10445 2.25251 2.24529 2.26515 2.32835 2.24348 1.34338 1.04726 
1.26935 0.11816 0.17041 2.54863 3.28532 3.38824 3.38824 3.38824 0.69382 
0.81344 0.87393 0.92358 1.01928 0.97865 1.08157 1.1872 1.47429 1.5727 
1.64312 1.70541 1.84986 2.77253 2.6335 2.56488 2.14237 2.29765 2.09362 
2.23446 2.23807 1.09963 0.08115 0.9299 1.06713 0.86715 1.47339 1.73159 
1.41832 2.01417 2.01417 2.25251 2.17848 2.78697 2.96031 3.38824 0.61121 
0.55478 0.58999 0.7543 0.85767 0.94344 0.97323 0.98858 1.1231 1.26123 
2.35001 2.27237 2.51071 2.66961 2.28321 2.23446 0.75521 0.76965 0.93622 
0.45593 0.10857 0.15856 0.08019 1.07886 1.16914 1.19352 0.72541 0.76604 
0.72361 1.10324 1.68735 1.7984 2.22001 2.4096 3.29255 3.21671 3.35574 
3.36477 3.35213 3.38644 3.38824 3.38824 3.34491 3.33769 3.32505 2.38793 
2.43127 2.6678 0.72406 0.86851 0.84729 0.86941 1.06442 1.09511 1.56006 
2.30668 2.51794 2.50349 2.41863 2.51071 1.89319 1.96903 2.03042 2.17306 
2.14237 2.05931 0.95879 0.3591 0.21239 0.87979 0.95066 1.05178 1.01837 
1.18088 1.06713 0.69291 0.68388 0.70284 0.79674 0.82517 0.92268 2.62627 
3.37199 3.32685 1.88958 0.56471 0.53041 0.63829 0.80667 0.88882 0.98768 
1.0265 1.12039 1.3497 2.43307 2.17668 2.26876 2.24348 1.89861 1.97625 
1.96 2.21098 2.22362 2.21279 0.5769 0.26521 0.08916 0.74212 0.97323 
0.97323 0.66763 0.6717 0.66357 0.74482 2.67503 2.81225 2.93684 2.98559 
3.35574 3.33407 3.38824 3.38824 3.37019 3.3756 0.79448 0.94344 0.94344 
1.00754 1.02921 1.06171 1.10143 1.51221 1.65666 1.78034 1.7975 1.58714 
2.16404 2.06834 2.1532 1.84264 1.85528 1.94014 2.13515 2.1857 2.19834 
2.19112 2.22904 2.20737 2.22904 2.23446 2.22543 2.19293 2.1857 2.18209 
1.03824 0.12369 0.66402 0.71413 0.66402 1.34248 1.61874 1.56818 1.57811 
2.01237 1.72347 2.40779 3.36658 3.38824 3.38824 3.38824 3.38644 3.33046 
3.29977 0.768523 0.905957 0.75114 0.58187 0.60128 0.76153 0.89334 0.9624 
0.96962 1.01567 1.04004 1.15199 1.20435 1.35512 1.37227 1.54742 1.67742 
1.94195 2.07917 1.78937 1.86972 1.8643 2.07376 2.10084 2.05931 2.16945 
2.11709 2.08098 2.21459 2.16584 0.56697 0.48617 0.86083 0.72677 0.64867 
0.60534 2.00875 1.54742 2.0882 2.22362 3.20768 3.33046 3.23296 3.35394 
3.38644 3.38644 3.38824 3.31241 3.28893 1.10474 1.11588 0.95969 0.929 
1.07435 1.06351 1.13213 1.17456 1.24949 1.36957 1.9257 1.74243 1.69548 
1.83722 1.99431 2.17668 2.1857 2.15862 2.20015 0.26543 0.13599 0.17165 
0.38438 0.33653 0.88702 0.67079 0.68343 0.66944 0.68072 0.70916 1.55193 
1.3479 2.33557 2.50891 2.6353 2.84114 3.30157 3.38283 3.37741 3.38644 
3.38824 3.35935 2.06112 2.23987 2.09362 1.90222 1.59707 0.73941 0.81931 
0.98316 1.03101 1.10866 1.11678 1.07886 1.08428 1.16373 1.46526 1.69367 
1.895 1.52395 1.7993 1.76951 1.61242 1.61784 2.21098 2.16945 2.15501 